Data for the polymer chain was created by EMC v9.4.4, build Jul  2 2019 14:55:34

         2938  atoms
         957  bonds
        1772  angles
        2577  dihedrals
        1008  impropers

          11  atom types
          15  bond types
          27  angle types
          35  dihedral types
          20  improper types

             -10.2620   58.7327  xlo xhi
             -10.3169   58.7214  ylo yhi
             -10.2501   91.0896  zlo zhi

Masses

       1   12.01115  # c
       2    1.00797  # hc
       3   15.99940  # o_2
       4   12.01100  # c_2
       5   15.99940  # o_1
       6   14.01000  # n_2
       7    1.00800  # hn2
       8   12.01115  # cp
       9   12.01115  # c_1
      10   15.99940  # oc
      11   26.982

Atoms

581	1	8	-0.126800000000000	13.8299075452070	13.1957457506931	33.2929472635040
853	1	1	-0.106000000000000	31.0737053025674	14.9498110068771	56.8604297366525
933	1	2	0.0530000000000000	33.7103148851108	12.3242933712584	59.9759921819032
854	1	2	0.0530000000000000	31.7966604491227	14.5063516289196	57.5538616507767
932	1	2	0.0530000000000000	32.6557634036126	10.9968412985947	60.5818263635562
931	1	1	0.0270000000000000	32.6597106934830	11.9051920118996	59.9340915023271
935	1	1	-0.0260000000000000	31.4045892910691	12.9302257568580	61.7392515407408
835	1	1	-0.106000000000000	32.4380410921112	11.5573523527367	58.4393576312924
719	1	2	0.0530000000000000	14.0249507767917	31.5971297304163	57.2244700355565
582	1	2	0.126800000000000	13.0153410393398	12.5454698970328	33.6195724027557
584	1	2	0.126800000000000	14.0341200034450	13.8980592942039	35.3038530165942
583	1	8	-0.126800000000000	14.3595262732008	14.0451766261391	34.2768004809486
934	1	10	-0.266000000000000	31.6201990601343	12.7173400528135	60.3523060326513
836	1	2	0.0530000000000000	32.4061077091185	12.5242895887944	57.9139587536872
936	1	2	0.0530000000000000	32.2404256625235	13.4934571585693	62.2880690581568
855	1	2	0.0530000000000000	31.0145796283408	14.4237637244933	55.9092348003338
722	1	2	0.0530000000000000	15.9994531641739	32.0649669716680	58.8315785867724
723	1	2	0.0530000000000000	16.0288414432149	32.7450626894052	57.2011006783508
585	1	8	0.237000000000000	15.5546028362087	14.7081315490534	34.1106730047079
721	1	1	-0.106000000000000	16.1458658169075	31.7631909630790	57.7215826243542
837	1	2	0.0530000000000000	33.2752813383723	10.9435778637733	58.0457885537245
718	1	1	-0.106000000000000	14.9116522924173	30.9002501626759	57.2894686596250
650	1	2	0.0530000000000000	13.8807641510969	15.5627040293612	38.7500661426810
937	1	2	0.0530000000000000	31.2264357692282	11.9351313262047	62.2918181222110
590	1	6	-0.726000000000000	16.3333671367047	15.3541572560205	35.1633361607217
452	1	2	0.0530000000000000	14.7496166475158	11.5144427891784	39.2660357581976
938	1	2	0.0530000000000000	30.4959301983945	13.4771195409105	61.8318311596518
451	1	1	-0.106000000000000	14.7743554921365	11.7819183906121	40.3706903690922
455	1	2	0.0530000000000000	13.1860772592727	10.2396639125738	40.4910467119485
383	1	2	0.126800000000000	21.3911353249087	13.9748119986444	59.9449579877745
382	1	8	-0.126800000000000	21.3862724921965	14.0837771322970	58.8593264950393
386	1	8	0	20.1660148055541	13.8561137737508	56.8075092807880
384	1	8	-0.126800000000000	20.4170868905773	13.4579786388998	58.0874964898285
385	1	2	0.126800000000000	19.7491022881982	12.7457243788825	58.6804205334308
396	1	2	0.126800000000000	21.0232559398466	11.1192241624394	56.7512387204764
387	1	8	-0.126800000000000	20.9049388888551	14.9147699050567	56.2930040771951
734	1	2	0.0530000000000000	20.3770104305677	31.5141323016200	58.2390168789269
724	1	1	-0.106000000000000	17.6570771428203	31.2894935854624	57.5853857009725
725	1	2	0.0530000000000000	18.3995480638052	32.0538227851581	57.9924494845842
393	1	2	0.0530000000000000	18.3488811272735	12.7604856108050	56.6811357524181
391	1	1	-0.106000000000000	19.1572877996584	13.1501792852978	56.0009822566490
395	1	8	-0.126800000000000	20.7300176362498	11.0933745287397	55.5924223187055
726	1	2	0.0530000000000000	17.8210415207245	31.2217745552989	56.5034716430274
593	1	5	-0.585000000000000	16.1659101858045	13.9752448736389	36.9479343539884
447	1	2	0.0530000000000000	17.2597843069716	10.8364589437285	39.4416340611987
381	1	8	0.237000000000000	22.1940686008847	15.1152005127469	58.3516171178736
389	1	8	-0.126800000000000	21.9031162344627	15.4702201368668	57.0240847003637
592	1	4	0.885000000000000	16.6244362020134	14.9240312427729	36.3712179563712
596	1	2	0.0530000000000000	18.2771850783884	14.3836478061223	38.2191668315174
440	1	2	0.0530000000000000	20.2292838635497	11.4171402765640	39.5146999955987
392	1	2	0.0530000000000000	18.6687513788267	13.7897153978933	55.2609022100994
394	1	8	0	19.7429939243448	11.9998724249848	55.1039323702645
740	1	2	0.0530000000000000	22.2349817201294	32.4948179869050	58.5158597025909
741	1	2	0.0530000000000000	22.6896959091552	31.7998380217202	60.0361995324471
739	1	1	-0.106000000000000	22.7511204898735	31.6777070479219	58.9436098138565
390	1	2	0.126800000000000	22.4922233875197	16.1692584146349	56.4362562665346
441	1	2	0.0530000000000000	19.6159874523310	9.93964172515955	40.0981434265632
600	1	2	0.0530000000000000	16.5775125501602	15.7453581207654	39.1920558677441
380	1	7	0.378000000000000	23.1069520535860	15.6758997939656	60.2205616638410
398	1	2	0.126800000000000	22.0260097041967	9.49828521716307	55.2930626192217
388	1	2	0.126800000000000	20.5412256691865	15.3856309660104	55.3129084307442
397	1	8	-0.126800000000000	21.2811421062484	10.1804852780039	54.7868480808061
379	1	6	-0.726000000000000	23.2202415939982	15.6167257595961	59.2488331838131
591	1	7	0.378000000000000	16.7385120725099	16.2396517838266	34.9129279410285
595	1	1	0.119000000000000	18.2161679983994	15.4828149469036	38.0761646359721
594	1	3	-0.414000000000000	17.4373700862966	15.8136990303425	36.9230390794816
735	1	2	0.0530000000000000	20.2736660171112	30.5486016089542	59.5136035816197
603	1	2	0.0530000000000000	18.6769607342644	15.1194489979026	40.7049164610815
851	1	2	0.0530000000000000	29.0230575821818	15.4059513537478	56.7617742460085
832	1	1	-0.106000000000000	31.2086460049604	10.7721280853830	58.0931748453818
834	1	2	0.0530000000000000	30.9955304323926	10.9383748746075	57.0183724163157
850	1	1	-0.106000000000000	29.7037235449259	15.0143078280305	57.4911898163594
833	1	2	0.0530000000000000	30.3093816261577	11.1068066943770	58.6436316093525
86	1	2	0.0530000000000000	6.30315928795999	11.7847030632375	35.1389013570273
842	1	2	0.0530000000000000	26.7325152087210	13.7816175951718	60.4624136552330
841	1	1	-0.106000000000000	27.6374424732343	14.2479919536382	60.0782600604929
377	1	4	0.885000000000000	24.3479140346997	15.8843395734903	58.7406382877122
843	1	2	0.0530000000000000	28.3474175525998	13.8425736035981	60.8039670982999
743	1	2	0.0530000000000000	24.7159599085017	32.8347654775833	58.9067170863148
378	1	5	-0.585000000000000	24.6010202493958	16.0041708467110	57.5574945423073
744	1	2	0.0530000000000000	24.2743444303329	31.7650947119403	57.4980396969891
742	1	1	-0.106000000000000	24.2778126487848	31.8954312549690	58.5845581773101
845	1	2	0.0530000000000000	27.6045651359829	12.4525716621993	58.7525713314043
844	1	1	-0.106000000000000	27.8830233112469	13.5469208594225	58.6319426734885
846	1	2	0.0530000000000000	27.2563440239150	14.0298809683202	57.8700685250177
847	1	1	-0.106000000000000	29.2664536917679	13.5471848484527	57.9469364515093
85	1	1	-0.106000000000000	5.82930871445693	11.4163449690004	34.2107868313163
849	1	2	0.0530000000000000	30.0379507005324	13.2151837049484	58.6021439146402
848	1	2	0.0530000000000000	29.3613159752081	12.8493431926688	57.1120717647175
83	1	2	0.0530000000000000	4.16502746508899	12.8566124606079	34.3657276372803
825	1	2	0.0530000000000000	30.1755029471289	10.1822381094148	60.6789723324928
87	1	2	0.0530000000000000	5.11512849544683	10.6855260821201	34.5793585647574
838	1	1	-0.106000000000000	27.5249089395658	15.7735100257730	60.1978488440394
823	1	1	-0.106000000000000	30.1725326176779	9.08884544225037	60.6662730391847
84	1	2	0.0530000000000000	5.56882735250838	13.3953619929032	33.4525722788190
82	1	1	-0.106000000000000	4.90884554645409	12.5370184281184	33.6112902735809
90	1	2	0.0530000000000000	7.43816211764626	10.0944517174972	34.1472806277343
197	1	2	0.126800000000000	25.7093786444411	-5.70987726643595	33.0007567523751
856	1	1	-0.106000000000000	31.6611193428011	16.3071076304654	56.3062247110118
860	1	2	0.0530000000000000	33.6619310597025	15.5133177162482	56.1684268073609
651	1	2	0.0530000000000000	14.8214768066235	16.8754440746375	39.4087669333119
649	1	1	-0.106000000000000	13.8773263360092	16.3197066864630	39.5414336322037
647	1	2	0.0530000000000000	11.6737879288439	16.8202363611177	39.3034239726718
645	1	2	0.0530000000000000	12.4510933355835	17.6930943165699	37.2358001043749
646	1	1	-0.106000000000000	12.6287138055980	17.3933988669079	39.3925662510730
648	1	2	0.0530000000000000	12.6022237636644	18.0666319774043	40.3226864863174
643	1	1	-0.106000000000000	12.7363703125262	18.3176174991421	38.1111105756773
644	1	2	0.0530000000000000	11.8989195265017	19.0369457616288	38.1389338480884
637	1	1	-0.106000000000000	14.4273024735146	20.2165240159243	38.8742184538594
638	1	2	0.0530000000000000	14.5259270299386	19.6441925165249	39.8097397109275
639	1	2	0.0530000000000000	15.4315324738734	20.4949170721991	38.6367821794381
640	1	1	-0.106000000000000	13.9549374801196	19.1062680549038	37.8873457308927
641	1	2	0.0530000000000000	13.8348130543646	19.5700149981973	36.8567860851288
642	1	2	0.0530000000000000	14.7514478491267	18.4021100476437	37.8004154655184
635	1	2	0.0530000000000000	12.5460133537608	20.7825926525571	39.6307719580758
634	1	1	-0.106000000000000	13.4218766848449	21.2985066803746	39.1073942483278
636	1	2	0.0530000000000000	13.0472248706051	21.6821996011068	38.0758755761239
693	1	2	0.0530000000000000	13.7582474136680	21.9412053997458	56.8789665112995
345	1	2	0.0530000000000000	32.2768493112209	1.59570479631760	35.6663537195486
631	1	1	-0.106000000000000	13.8451038070000	22.4179716913140	39.9963752972042
632	1	2	0.0530000000000000	14.6218798341907	22.9471235889090	39.3631410219720
343	1	1	-0.106000000000000	31.5430267719016	1.14487036026502	34.9263336081722
350	1	2	0.0530000000000000	31.5626850898857	-0.551826589849666	37.4623903778334
858	1	2	0.0530000000000000	31.7364218831006	17.0457118076085	57.1350689810070
340	1	1	-0.106000000000000	32.2035514642692	1.35671273293768	33.5819656419482
691	1	1	-0.106000000000000	14.6382510316550	21.8923290970467	56.1744586690242
864	1	2	0.0530000000000000	33.9467179283661	18.0862684308435	56.0160642853930
342	1	2	0.0530000000000000	33.1939225391971	0.939879186710106	33.6454197281885
341	1	2	0.0530000000000000	31.7142852271269	0.850932063516682	32.7871816441577
692	1	2	0.0530000000000000	15.5396293641485	21.6376177645428	56.8808428823056
344	1	2	0.0530000000000000	30.7062340892289	1.88888911765183	35.0049133336788
633	1	2	0.0530000000000000	13.0723343861417	23.2174624261484	40.1571461570650
629	1	2	0.0530000000000000	13.4593600360625	22.1110479975788	42.0639064326176
628	1	1	-0.106000000000000	14.3728394214549	22.1221816838280	41.4471669913515
904	1	2	0.126800000000000	31.1727409287560	22.6900700033169	40.2787411237447
859	1	1	-0.106000000000000	33.0027993129442	16.1358943460682	55.5254995144750
186	1	2	0.0530000000000000	18.0044523359406	20.6612058189138	34.9918299367441
2	1	2	0.0530000000000000	17.9689851447894	18.5619943230374	36.6304655935344
3	1	2	0.0530000000000000	19.3837223320788	19.4880758947148	37.4273032575748
1	1	1	0.119000000000000	18.8408527701170	19.3344992629648	36.4860299461795
4	1	3	-0.414000000000000	19.7345383530105	18.8105470843706	35.4869747915078
184	1	1	-0.106000000000000	18.3816355214613	20.7052731163986	36.0709864522128
181	1	1	-0.106000000000000	19.5098690921119	21.7969254379321	36.2135863692066
188	1	2	0.0530000000000000	22.3633318941654	-2.07341244046767	36.7316665317319
597	1	2	0.0530000000000000	19.2361240348938	15.8662981926122	37.8994950212958
183	1	2	0.0530000000000000	20.4497973676199	21.2651709472933	36.3035814967071
185	1	2	0.0530000000000000	17.4874723367582	20.9346036449604	36.6483242313050
182	1	2	0.0530000000000000	19.4258487143161	22.2678106877874	37.1951279564235
599	1	2	0.0530000000000000	17.3585891489961	17.2851519631446	38.8305234273123
598	1	1	-0.106000000000000	17.5497060663254	16.2345191955638	39.1517691499881
372	1	2	0.0530000000000000	23.8229197935743	-1.70246666240068	38.6258338074380
5	1	4	0.885000000000000	19.2291529655083	18.1692987597893	34.4322520968238
8	1	7	0.378000000000000	21.1669045357910	18.0133730672982	34.0549136776231
173	1	2	0.0530000000000000	22.0782200726036	22.4535379194935	35.0978079235914
608	1	2	0.0530000000000000	18.5826736679540	18.6558678802043	39.6001391593231
178	1	1	-0.106000000000000	19.5220684116045	22.9370251212853	35.1742543092753
187	1	1	0.119000000000000	23.3234200883531	-1.55436521257894	36.5186514933650
189	1	2	0.0530000000000000	23.0884292884361	-0.609790873100911	36.0142284965850
370	1	1	-0.106000000000000	24.3304541057881	-1.46233222684425	37.6957047277954
605	1	2	0.0530000000000000	19.9572204604472	17.0857512953774	40.8263051321552
604	1	1	-0.106000000000000	18.9911507888977	17.2398386014599	41.1988457124787
7	1	6	-0.726000000000000	20.2625035621973	17.8894734068513	33.6366562155712
190	1	3	-0.414000000000000	23.8695015108458	-2.45119604471607	35.4681537687367
175	1	1	-0.106000000000000	20.3335743596669	22.5661377922662	33.8990830024221
617	1	2	0.0530000000000000	17.1583139941829	21.7667157369335	39.8505849110157
696	1	2	0.0530000000000000	15.7629281167943	23.0399459163052	54.7109741064658
601	1	1	-0.106000000000000	18.1090821593136	16.0484071806318	40.6180771736047
194	1	7	0.378000000000000	24.6763623155181	-4.03729478364833	34.4576358798867
376	1	3	-0.414000000000000	25.1719630426169	16.2032777727454	59.7288277888609
840	1	2	0.0530000000000000	27.2858144178145	15.9496305772824	61.1937200477771
857	1	2	0.0530000000000000	30.8711978941489	16.5771287516295	55.5579790884126
347	1	2	0.0530000000000000	31.5838412592681	-1.08310304629779	35.0096907460940
346	1	1	-0.106000000000000	30.9238148150706	-0.245123573678493	35.3860996995103
371	1	2	0.0530000000000000	25.1315881080767	-2.17767700253921	37.5505674824082
852	1	2	0.0530000000000000	29.7713557299083	15.5920522884469	58.4214949792132
839	1	2	0.0530000000000000	28.5584130574532	16.1053711724153	60.0288016830536
349	1	1	-0.106000000000000	30.5657144824719	-0.516674704163304	36.9079698183298
368	1	2	0.0530000000000000	24.5199314991379	0.711574958852140	37.7494039903969
351	1	2	0.0530000000000000	30.1043736478492	-1.49726159846650	36.9663584747119
348	1	2	0.0530000000000000	30.0120610146837	-0.236989492594219	34.7613045587237
373	1	1	0.119000000000000	26.5578924967670	16.6248911164394	59.3761096996620
374	1	2	0.0530000000000000	26.6037448826275	17.6832192942115	59.7203401063704
375	1	2	0.0530000000000000	26.7666646717859	16.6543779764680	58.2500681771569
369	1	2	0.0530000000000000	25.8791110924617	-0.142268033774664	36.9352544282042
367	1	1	-0.106000000000000	25.1517430069130	-0.154115592279300	37.7576793816874
191	1	4	0.885000000000000	24.9137396000315	-2.13810122483937	34.7340070113883
192	1	5	-0.585000000000000	25.4323190765518	-1.05334068292525	34.7690672680615
364	1	1	-0.106000000000000	26.0700528368492	-0.196945812637171	38.9829190611115
365	1	2	0.0530000000000000	26.6920914967581	-1.10773239231654	38.9119676609195
362	1	2	0.0530000000000000	26.3377105397325	1.83522280056678	39.7808636572003
361	1	1	-0.106000000000000	26.8664679297141	1.11523594846553	39.1385475626551
363	1	2	0.0530000000000000	27.7480982588640	0.877059348991118	39.8076648898192
358	1	1	-0.106000000000000	27.4370910380314	1.79871783073065	37.8880604778069
356	1	2	0.0530000000000000	27.9711628607206	0.00365912154786940	36.7545979406316
355	1	1	-0.106000000000000	28.4166266584620	0.951617751164942	37.0138104027714
352	1	1	-0.106000000000000	29.7343598370549	0.525272812996807	37.6399203197189
357	1	2	0.0530000000000000	28.7734558161268	1.47974713829005	36.1109193064668
353	1	2	0.0530000000000000	30.3836249117888	1.40634932861347	37.6211230840054
354	1	2	0.0530000000000000	29.5311204777108	0.142201978901136	38.6744923591371
366	1	2	0.0530000000000000	25.4463084060494	-0.412598493656262	39.8398362745980
193	1	6	-0.726000000000000	25.2341877498704	-3.24190526036102	34.1122838262787
168	1	2	0.0530000000000000	24.2989504742305	22.9038081209061	34.4969339525758
161	1	2	0.0530000000000000	26.6079746619288	24.1927045579106	34.8007598602582
204	1	2	0.126800000000000	27.4367587664461	-1.79240633843681	33.8025414738909
195	1	8	0.237000000000000	26.4312170579577	-3.65390237979704	33.4860914977006
160	1	1	-0.106000000000000	26.4897690711758	24.5556545123050	33.7696076627565
720	1	2	0.0530000000000000	15.0244671020726	30.4464338337520	56.2893199638632
717	1	2	0.0530000000000000	14.6426140815704	30.3847465117407	59.3867608911947
338	1	2	0.0530000000000000	32.9329437179942	3.28649209527055	34.0396161840220
701	1	2	0.0530000000000000	14.6597867732875	23.8954813106896	58.2846303226278
715	1	1	-0.106000000000000	14.6778822127029	29.8284284037100	58.3401952586487
828	1	2	0.0530000000000000	32.4364069897607	9.03470572516960	60.0870374015647
714	1	2	0.0530000000000000	12.4828709721578	29.4593534169860	58.1323346612553
707	1	2	0.0530000000000000	12.3929653100654	26.1906656571657	58.4624915634885
700	1	1	-0.106000000000000	14.3580990550111	24.5977924538671	57.5082781781566
703	1	1	-0.106000000000000	14.4888599745428	26.0091458340096	58.0689445962574
708	1	2	0.0530000000000000	13.4307204329127	25.7913492318450	59.8955559832765
706	1	1	-0.106000000000000	13.3611465910539	26.3771929519971	58.9484266189521
709	1	1	-0.106000000000000	13.3624544693463	27.8762463865223	59.3044416488042
711	1	2	0.0530000000000000	12.4532321426789	28.0732700866527	59.9516446827630
712	1	1	-0.106000000000000	13.4412577835281	28.9168800766374	58.1392377584025
713	1	2	0.0530000000000000	13.4351566929889	28.4436939807386	57.1097904175084
710	1	2	0.0530000000000000	14.2359415355742	28.0203055660653	59.9135912211771
704	1	2	0.0530000000000000	14.6889657509660	26.8052867645153	57.2629904982168
702	1	2	0.0530000000000000	13.3081808571935	24.3625896291046	57.2921167166874
915	1	2	0.126800000000000	32.2477312876644	25.6216240003808	39.9948245030820
705	1	2	0.0530000000000000	15.4614681884776	26.1814805245156	58.6719294247099
716	1	2	0.0530000000000000	15.5631171652896	29.1722950600700	58.3992907853738
697	1	1	-0.106000000000000	15.3404714070230	24.4668299190269	56.3030131453155
698	1	2	0.0530000000000000	16.3399599415281	24.5434814268025	56.7011730346267
624	1	2	0.0530000000000000	16.0472940080247	24.3491485912384	40.3636601053976
285	1	5	-0.585000000000000	15.2238150955429	6.13396859802479	40.8318518472964
337	1	1	-0.106000000000000	32.3310273075462	2.85441837160059	33.2452237098510
695	1	2	0.0530000000000000	14.0907428592403	23.5513003056407	54.8994449850402
334	1	1	-0.106000000000000	31.0962269671719	3.72402968521991	33.0515912057659
694	1	1	-0.106000000000000	14.9809683076016	23.2364833895529	55.4663407194440
297	1	2	0.126800000000000	16.8602172940417	5.95781845502114	39.0775745764510
699	1	2	0.0530000000000000	15.3231971601813	25.3563686452286	55.6518050203930
336	1	2	0.0530000000000000	30.7371768956374	3.93461078540415	34.0071476229515
914	1	8	-0.126800000000000	31.1746206166990	25.6815655708192	40.1175763015614
917	1	2	0.126800000000000	30.9307125539397	26.8488545892374	38.2672200112971
733	1	1	-0.106000000000000	20.6103310858470	30.5469220702272	58.4814604782937
736	1	1	-0.106000000000000	22.1024731290660	30.3682556532871	58.4020388424597
171	1	2	0.0530000000000000	22.2813818101753	24.4713409482303	34.2620515043920
738	1	2	0.0530000000000000	22.5471098352676	30.1325143558062	57.3704723383480
180	1	2	0.0530000000000000	19.9634466975591	23.8081943921525	35.6149947411862
729	1	2	0.0530000000000000	18.0504567084783	29.9965234553312	59.1669293612195
732	1	2	0.0530000000000000	19.7757526487627	29.5253130341874	56.6735058055616
727	1	1	-0.106000000000000	18.1720554059852	29.9720132587604	58.1082776709377
179	1	2	0.0530000000000000	18.5520527878727	23.2652358771784	34.7425589662637
296	1	8	-0.126800000000000	17.8238888516376	5.84655902394842	39.6546141812385
300	1	2	0.0530000000000000	20.2588845274585	2.96356019833060	38.1416318273014
728	1	2	0.0530000000000000	17.4834945848700	29.1521874038720	57.8231133726746
730	1	1	-0.106000000000000	19.6010346450007	29.6085781142106	57.7597621017476
731	1	2	0.0530000000000000	19.8743633730100	28.5952847229518	58.2155255323740
737	1	2	0.0530000000000000	22.3543616142442	29.4793273483186	59.0401576613658
298	1	1	-0.106000000000000	20.8121403011917	3.60071184566109	38.7975904366841
301	1	8	0	21.8082038330293	4.41583284140484	37.9793613845733
307	1	8	-0.126800000000000	22.3047678668071	5.79988522898894	36.0225121811657
308	1	2	0.126800000000000	21.8878394128785	6.38835631701786	35.1758697999511
309	1	8	-0.126800000000000	21.4048315694095	5.11928742393801	36.8096705966162
310	1	2	0.126800000000000	20.4438437038485	4.86986667878080	36.3483248836403
295	1	2	0.126800000000000	18.4821862870848	4.67386478454744	37.9604679720543
293	1	8	0	19.8562472348240	4.47806609849532	39.5752454394328
294	1	8	-0.126800000000000	18.7212681737146	5.01099923484829	38.9558966421771
302	1	8	-0.126800000000000	23.1280384348648	4.50885688239439	38.2675669883275
561	1	2	0.0530000000000000	18.9715267629646	5.15268209876662	34.5238834024419
299	1	2	0.0530000000000000	21.3240944460821	2.98170965462232	39.5133002876847
306	1	8	0.237000000000000	23.6395526356481	5.86601718578920	36.3046556041783
303	1	2	0.126800000000000	23.4840955968914	3.90358091007156	39.1935926705756
564	1	5	-0.585000000000000	18.3184692583174	7.58844452552990	33.2797600191010
291	1	8	-0.126800000000000	20.1745670999956	5.00200362926290	40.8413063278559
288	1	8	0.237000000000000	18.0333307848359	6.17438949161621	40.9879292780036
559	1	1	0.119000000000000	18.8680193890063	4.93675873046351	33.4606396014866
560	1	2	0.0530000000000000	18.7813810598509	3.86666704717372	33.3293835997236
359	1	2	0.0530000000000000	26.6605591105412	2.20568469099242	37.1590828026533
360	1	2	0.0530000000000000	28.0291273201174	2.73374491027132	38.1872769902490
824	1	2	0.0530000000000000	29.2402679103636	8.75642282323391	60.2109999632271
829	1	1	-0.106000000000000	31.1696289628225	9.20729516076173	58.3264710459326
746	1	2	0.0530000000000000	26.0669442041727	30.5709822181617	58.5931423925765
831	1	2	0.0530000000000000	30.1631930873149	8.87184794637349	58.1312620319611
830	1	2	0.0530000000000000	31.9401392504405	8.72644982498854	57.7626165900708
827	1	2	0.0530000000000000	31.5142201016172	7.67563721423022	59.6121954913328
826	1	1	-0.106000000000000	31.3742953268146	8.73509779168323	59.7579070283294
745	1	1	0.119000000000000	25.0593513986014	30.7028682262534	59.1174612544125
304	1	8	-0.126800000000000	24.0204116433386	5.26765962603166	37.4908705463789
916	1	8	-0.126800000000000	30.4245384847773	26.2362318222210	39.0671004971217
924	1	7	0.378000000000000	27.6201039508981	27.7433767742806	38.5924906293841
926	1	5	-0.531000000000000	27.6649633111239	27.8076243361869	36.2113037370927
923	1	6	-0.726000000000000	28.2180616321632	27.0580488263952	38.2031123002696
925	1	9	0.642000000000000	28.3300380099396	27.0485955577000	36.8554530018415
918	1	8	0.237000000000000	29.0351063817825	26.4412117143698	39.1819833191331
748	1	3	-0.414000000000000	25.2246281088696	30.8903341304351	60.5124266974183
930	1	2	0.0530000000000000	29.9287133596218	26.7029998284705	35.3870061073455
927	1	1	-0.159000000000000	29.2217187553202	26.0609629827212	36.0137866471242
929	1	2	0.0530000000000000	29.7316771924228	25.1935442831072	36.3340503254890
928	1	2	0.0530000000000000	28.4752340914829	25.6977308310187	35.2897297116776
747	1	2	0.0530000000000000	24.4979596847748	29.7465797855864	58.9578044803929
305	1	2	0.126800000000000	25.0836812204075	5.38370825397363	37.6680186594785
750	1	5	-0.585000000000000	26.5251889188796	29.0224343364500	60.9097444630882
311	1	6	-0.726000000000000	24.6505045102251	6.43093704891407	35.4309442042124
312	1	7	0.378000000000000	25.5840766919272	6.48231853745868	35.7935114749718
313	1	4	0.885000000000000	24.4983632145119	6.94841168653110	34.2160703647010
749	1	4	0.885000000000000	25.7457041688465	29.8789376388806	61.2689975209749
919	1	8	-0.126800000000000	28.4552895661007	25.9715085395914	40.3850312138117
164	1	2	0.0530000000000000	24.6954361726595	25.5256576664520	34.4298374716846
330	1	2	0.0530000000000000	30.2485511109148	6.48527900580396	33.4982358845180
920	1	2	0.126800000000000	27.3755973607397	26.2328647795665	40.4235856301469
821	1	2	0.0530000000000000	30.5599027973655	7.62360518847344	62.3736745263179
820	1	1	-0.106000000000000	30.3952643191266	8.70476055028152	62.1634366381822
315	1	3	-0.414000000000000	25.6842507420038	7.29530663351913	33.7220976050019
652	1	1	0.119000000000000	13.9231119236534	15.6606658689822	40.8824888405197
654	1	2	0.0530000000000000	13.0029232952817	15.0833866740834	41.0958503149050
653	1	2	0.0530000000000000	14.8661552640155	15.1502846174223	40.8770821671544
453	1	2	0.0530000000000000	14.2073301350538	12.7187560338927	40.4303404400085
458	1	2	0.0530000000000000	12.2998182761364	10.8660381675257	42.3843254157841
459	1	2	0.0530000000000000	13.4712217787791	12.0174753065676	42.7725393568164
457	1	1	-0.106000000000000	13.3717414941567	11.0153596254348	42.5415071899371
461	1	2	0.0530000000000000	13.3890287152050	10.6144224625677	44.6964924927379
460	1	1	-0.106000000000000	13.8778982745227	10.1447774117971	43.7525325823121
113	1	2	0.0530000000000000	16.4477471073575	10.6812916703081	24.3075583796123
889	1	1	-0.106000000000000	33.5417944340531	16.1162138348228	45.4285987271559
892	1	1	0.119000000000000	32.5613744034531	15.8271333879439	44.2835018864583
887	1	2	0.0530000000000000	33.1151920247346	14.1668856664837	46.1692107225337
886	1	1	-0.106000000000000	33.9741887833356	14.8377556630905	46.0754273475731
888	1	2	0.0530000000000000	34.6623937768719	14.3134464219279	45.4419260992309
894	1	2	0.0530000000000000	31.4986301557662	15.6875254986543	44.5947730462058
454	1	1	-0.106000000000000	13.9670230666994	10.6912527524515	41.1035081422016
456	1	2	0.0530000000000000	14.6093923644897	9.77213950085891	41.1736250093972
893	1	2	0.0530000000000000	32.7582286652979	14.8640468433433	43.8718716993684
807	1	2	0.0530000000000000	31.1426686092765	11.7833528176306	65.2135223205846
35	1	5	-0.585000000000000	15.0721270975777	12.1743461508380	26.2509214435217
38	1	2	0.0530000000000000	13.5521282784219	10.2084182977894	25.5759314601760
657	1	5	-0.585000000000000	15.1625121765617	15.4108442181491	43.3597443320304
882	1	2	0.0530000000000000	36.6165672105258	15.5293022593417	47.4475987353453
53	1	2	0.0530000000000000	9.61555633980943	12.7919448568071	25.8990431198766
804	1	2	0.0530000000000000	29.9712315064085	13.8266357161865	64.7516325302154
805	1	1	-0.106000000000000	30.0602156986262	11.7519916350729	65.1758551951904
462	1	2	0.0530000000000000	14.9776777675955	10.2578703301017	43.8623416243873
464	1	2	0.0530000000000000	12.3509209956593	8.66145423063715	44.0006781367473
822	1	2	0.0530000000000000	31.2977868624417	9.18266597963842	62.5767479375953
448	1	1	-0.106000000000000	16.1528783818721	12.1538547860201	40.8227124532766
449	1	2	0.0530000000000000	16.2318297145380	12.4129443195780	41.8454193794635
450	1	2	0.0530000000000000	16.4272734467928	13.0286251374627	40.1706606862776
446	1	2	0.0530000000000000	16.9628134307042	10.1301015430520	40.9207599357158
445	1	1	-0.106000000000000	17.2224734491857	11.1171469604871	40.5063579375440
439	1	1	-0.106000000000000	19.8706010491350	10.9537572371223	40.4329307760486
669	1	2	0.126800000000000	17.1751619811703	16.0786729258896	44.9008140638497
783	1	2	0.0530000000000000	22.0062344417267	17.2282423076030	62.7419383432527
114	1	2	0.0530000000000000	17.1115565361024	10.8529731648297	22.6814878581111
443	1	2	0.0530000000000000	18.6060069470163	12.7723301338685	40.5917834926274
124	1	2	0.126800000000000	18.0142222495860	13.0436555156950	22.8646972821030
442	1	1	-0.106000000000000	18.6489998180316	11.6965031387736	40.9118268414419
112	1	1	-0.106000000000000	17.3962893752136	10.5386457341617	23.7402315886667
115	1	8	0	18.5389257615958	11.4992999188831	24.2841144369372
123	1	8	-0.126800000000000	18.7015989431165	12.7609636718700	23.7315170366477
116	1	8	-0.126800000000000	19.4384293443418	11.0961623180240	25.2821383898777
121	1	8	-0.126800000000000	19.7635702912557	13.5120488004361	24.0738984242986
122	1	2	0.126800000000000	19.7990390052340	14.5147436608759	23.5827845575090
120	1	8	0.237000000000000	20.6108398118199	13.1750341207820	25.1674716497862
444	1	2	0.0530000000000000	18.7332902762659	11.7068651301549	41.9712967427548
118	1	8	-0.126800000000000	20.3985132397661	11.9625433130432	25.8184164197910
125	1	6	-0.726000000000000	21.5378128835732	14.1965726025512	25.6780392163186
433	1	1	-0.106000000000000	21.2925006894070	12.2173685858300	42.2297667563839
435	1	2	0.0530000000000000	21.5789346200993	12.9295114172517	41.4526575683837
127	1	4	0.885000000000000	22.0465825023549	15.2322484917191	25.0410316132583
128	1	5	-0.585000000000000	21.8774767982740	15.5470641479319	23.8941941329545
129	1	3	-0.414000000000000	22.8900872386244	15.8916385727855	25.8792155388823
430	1	1	-0.106000000000000	22.5876821881400	12.1131533406017	43.0540873920487
437	1	2	0.0530000000000000	20.7322621890567	10.2358978599816	42.2615392535206
436	1	1	-0.106000000000000	20.9639437521340	10.9326017667659	41.5011673384668
434	1	2	0.0530000000000000	20.4637303576211	12.6434110463635	42.8035800212663
438	1	2	0.0530000000000000	21.8798483326287	10.6612777315222	40.9333776398300
427	1	1	-0.106000000000000	22.8578713465190	10.8604509206330	43.8684118427545
428	1	2	0.0530000000000000	22.0871948678815	10.8809055136732	44.6500499473001
429	1	2	0.0530000000000000	22.7409607550397	9.91536656810074	43.3722473986488